AZM
    18
  -3.8260000   0.1690000  -0.2000000  -2.3480000   0.3730000  -0.4260000
  -1.9620000   1.2110000  -1.2320000  -1.5880000  -0.4420000   0.3770000
  -0.2180000  -0.5200000   0.4300000   0.3800000  -1.3350000   1.2720000
   1.7570000  -1.2640000   1.1620000   2.1190000  -0.3990000   0.2320000
   0.8220000   0.3900000  -0.5590000   3.7990000   0.0200000  -0.2470000
   3.9450000   1.5300000   0.2260000   3.7580000  -0.1730000  -1.6920000
   4.5890000  -0.9480000   0.5040000  -4.1750000   0.8750000   0.5590000
  -4.0440000  -0.8520000   0.1270000  -4.3620000   0.3440000  -1.1370000
  -2.0340000  -1.0650000   1.0340000   3.3880000   2.0860000  -0.4300000
