V13
    50
  -2.9480000   3.4610000  -3.1250000  -3.4630000   3.5750000  -1.6270000
  -2.7040000   4.4960000  -0.7880000  -4.9090000   3.7080000  -1.5060000
  -3.1050000   1.9970000  -0.8660000  -1.7660000   1.6640000  -0.6260000
  -0.8050000   2.4970000  -1.0590000  -1.3880000   0.4520000   0.0040000
  -0.0450000   0.0740000   0.1720000   1.0220000   1.0740000   0.3630000
   1.8170000   0.6990000   1.6290000   3.0800000   1.5340000   1.8340000
   4.3750000   0.7250000   1.7940000   4.5280000  -0.3020000   0.6700000
   4.2440000   0.2050000  -0.7420000   2.8000000   0.0040000  -1.2240000
   1.8520000   1.1700000  -0.9310000  -2.4390000  -0.4330000   0.3190000
  -3.7710000  -0.1030000   0.0550000  -4.7520000  -0.9810000   0.3170000
  -4.1090000   1.1080000  -0.5280000  -5.4060000   1.3320000  -0.7770000
  -2.1800000  -2.0130000   1.0770000  -3.1370000  -2.1550000   2.1580000
  -0.7630000  -2.1660000   1.3660000  -2.5910000  -3.1720000  -0.2050000
  -2.4380000  -4.5910000   0.3000000  -2.7810000  -5.5170000  -0.7310000
  -1.9270000   3.5310000  -3.0750000   0.0740000  -0.7440000   0.7820000
   0.5960000   2.0630000   0.5690000   2.0380000  -0.3740000   1.6510000
   1.1550000   0.8590000   2.4920000   3.0240000   2.0170000   2.8180000
   3.1410000   2.3610000   1.1180000   5.2150000   1.4300000   1.7470000
   4.4850000   0.1940000   2.7480000   3.9290000  -1.1960000   0.8820000
   5.5710000  -0.6450000   0.7010000   4.5660000   1.2450000  -0.8610000
   4.8790000  -0.3840000  -1.4170000   2.8540000  -0.0830000  -2.3180000
   2.3890000  -0.9490000  -0.8730000   1.1540000   1.2400000  -1.7770000
   2.4100000   2.1140000  -0.9480000  -3.6200000  -2.9970000  -0.5300000
  -1.9310000  -2.9910000  -1.0590000  -3.0780000  -4.7880000   1.1660000
  -1.4040000  -4.7930000   0.5980000  -3.7410000  -5.4520000  -0.8790000
