V12
    48
  -0.2640000  -3.7230000  -1.0090000   0.4830000  -3.3490000   0.3400000
  -0.4040000  -2.9140000   1.4170000   1.5060000  -4.2980000   0.7610000
   1.4440000  -1.8680000  -0.0300000   1.0760000  -0.5890000   0.4330000
  -0.1590000  -0.3000000   1.0870000  -1.3270000  -0.1850000   0.1650000
  -2.5970000  -0.2240000   1.0430000  -3.8340000  -0.7860000   0.3300000
  -4.9580000   0.2310000   0.1570000  -4.8430000   1.1120000  -1.0830000
  -3.6060000   2.0040000  -1.1330000  -2.3580000   1.3100000  -1.6870000
  -1.2360000   1.1050000  -0.6680000   1.9540000   0.4780000   0.1610000
   1.6270000   1.7090000   0.5870000   3.1570000   0.3020000  -0.5340000
   4.2640000   1.6760000  -0.8410000   4.8090000   2.0140000   0.8760000
   5.9040000   1.0440000   1.3080000   7.0830000   1.2260000   0.5250000
   3.4650000  -0.9710000  -1.0060000   4.5990000  -1.1750000  -1.6970000
   2.6230000  -2.0470000  -0.7590000   2.9740000  -3.2400000  -1.2590000
   0.4370000  -4.1820000  -1.5980000  -0.3470000  -1.1730000   1.6290000
  -1.3370000  -1.0450000  -0.5110000  -2.4140000  -0.8830000   1.9060000
  -2.7870000   0.7650000   1.4820000  -4.2300000  -1.5940000   0.9640000
  -3.5860000  -1.2590000  -0.6260000  -5.9030000  -0.3220000   0.0720000
  -5.0540000   0.8550000   1.0520000  -5.7290000   1.7610000  -1.1010000
  -4.9050000   0.4950000  -1.9870000  -3.4210000   2.4710000  -0.1620000
  -3.8460000   2.8270000  -1.8180000  -2.5990000   0.3690000  -2.1930000
  -1.9520000   1.9680000  -2.4660000  -0.3050000   1.0740000  -1.2470000
  -1.1480000   1.9800000  -0.0130000   3.9610000   1.9710000   1.5650000
   5.2010000   3.0360000   0.8850000   5.5910000  -0.0030000   1.2370000
   6.1740000   1.2360000   2.3510000   6.8180000   1.1070000  -0.4010000
