V17
    35
   6.1840000   1.0020000  -0.3070000   5.0520000   1.8140000  -0.5890000
   3.8360000   1.1870000  -0.6040000   3.6170000  -0.1820000  -0.4450000
   2.3160000  -0.6970000  -0.4830000   1.2180000   0.1480000  -0.6900000
  -0.1870000  -0.4060000  -0.7210000  -0.7460000  -0.3830000   0.6320000
  -2.0670000  -0.9140000   0.6530000  -3.2340000  -0.1210000   0.5930000
  -4.5010000  -0.7180000   0.5540000  -5.6270000   0.0060000   0.4720000
  -4.6220000  -2.1000000   0.5790000  -5.8350000  -2.6710000   0.5400000
  -3.4920000  -2.8970000   0.6260000  -3.6130000  -4.2340000   0.6310000
  -2.2320000  -2.3140000   0.6530000  -1.1530000  -3.1160000   0.6690000
  -3.1930000   1.6800000   0.5160000  -4.1320000   2.2210000   1.6720000
  -1.7880000   2.0120000   0.7340000  -3.6660000   1.9220000  -0.8420000
   1.4420000   1.5230000  -0.8300000   2.7410000   2.0340000  -0.7930000
   6.3350000   0.2510000  -1.0890000   7.0660000   1.6500000  -0.2950000
   6.1020000   0.5350000   0.6800000   4.4320000  -0.8790000  -0.2830000
   2.1550000  -1.7630000  -0.3360000  -0.1570000  -1.4280000  -1.1210000
  -0.7990000   0.1880000  -1.4130000  -0.8280000   0.6190000   0.8960000
  -4.1150000   3.2420000   1.5880000   0.5980000   2.2020000  -0.9490000
   2.8960000   3.1040000  -0.9000000
