V15
    49
  -4.3740000  -0.9200000  -0.9420000  -3.0960000  -1.7400000  -0.7080000
  -3.1200000  -2.9540000  -1.6580000  -3.0810000  -2.2620000   0.7350000
  -1.8770000  -0.9600000  -1.0700000  -1.4640000   0.0890000  -0.2240000
  -0.5610000  -0.0710000   0.8350000  -0.3110000   0.9960000   1.7040000
   0.5310000   0.8460000   2.7380000  -0.8980000   2.2430000   1.5160000
  -0.5930000   3.2050000   2.3950000  -1.7410000   2.4400000   0.4380000
  -2.0240000   1.3740000  -0.4140000  -2.8510000   1.5340000  -1.4620000
  -2.4700000   4.0270000   0.0730000  -4.0340000   3.8480000   0.2800000
  -1.8460000   4.9340000   1.0270000  -2.0570000   4.2310000  -1.3110000
   0.3950000  -1.5360000   1.1120000   0.0780000  -1.9950000   2.4540000
   0.2670000  -2.4590000  -0.0020000   2.0970000  -1.0160000   1.0980000
   2.4980000  -0.3920000  -0.2310000   3.9400000   0.0520000  -0.2080000
   4.2740000   1.3520000   0.1940000   5.6090000   1.7560000   0.2360000
   6.6200000   0.8650000  -0.1170000   6.2980000  -0.4320000  -0.5130000
   4.9630000  -0.8380000  -0.5570000  -5.2690000  -1.5400000  -0.8130000
  -4.4560000  -0.0870000  -0.2350000  -4.4030000  -0.5040000  -1.9550000
  -3.9900000  -3.5930000  -1.4710000  -2.2200000  -3.5690000  -1.5360000
  -3.1560000  -2.6360000  -2.7070000  -3.9820000  -2.8520000   0.9440000
  -2.2240000  -2.9150000   0.9210000  -3.0570000  -1.4480000   1.4680000
  -2.0460000  -0.5470000  -1.9950000  -4.3680000   3.3320000  -0.5400000
   2.2730000  -0.3410000   1.9380000   2.6890000  -1.9190000   1.2900000
   2.3510000  -1.1030000  -1.0540000   1.8640000   0.4690000  -0.4720000
   3.4970000   2.0620000   0.4730000   5.8570000   2.7690000   0.5450000
   7.6590000   1.1820000  -0.0840000   7.0860000  -1.1270000  -0.7890000
   4.7260000  -1.8530000  -0.8680000
