V14
    40
  -2.2870000   0.6100000   2.9860000  -1.7120000   0.9990000   1.6890000
  -1.9660000  -0.0140000   0.7150000  -1.1330000  -1.1200000   0.5110000
  -1.5370000  -2.1390000  -0.3560000  -0.7820000  -3.2340000  -0.5310000
  -2.7480000  -2.0670000  -1.0450000  -3.0560000  -3.0870000  -1.8570000
  -3.5740000  -0.9690000  -0.8690000  -3.1870000   0.0410000   0.0070000
  -3.9650000   1.1170000   0.2210000  -5.1530000  -0.8050000  -1.6830000
  -5.0560000   0.5080000  -2.5730000  -5.2890000  -2.0300000  -2.4580000
  -6.0580000  -0.6990000  -0.5430000   0.4650000  -1.2710000   1.2520000
   0.2630000  -1.8100000   2.5870000   1.3180000  -1.9730000   0.3090000
   1.1500000   0.3640000   1.4190000   2.6410000   0.3310000   1.7540000
   3.5200000   0.6190000   0.5600000   4.1060000  -0.4250000  -0.1660000
   4.9040000  -0.1540000  -1.2790000   5.1240000   1.1630000  -1.6770000
   4.5440000   2.2110000  -0.9640000   3.7440000   1.9410000   0.1480000
  -1.8490000  -0.3200000   3.3610000  -3.3750000   0.4980000   2.9250000
  -2.0710000   1.3970000   3.7140000  -2.2300000   1.8310000   1.3760000
  -5.1440000   1.2940000  -1.9220000   0.9430000   0.9190000   0.4990000
   0.6360000   0.8350000   2.2610000   2.8500000   1.1070000   2.5040000
   2.9380000  -0.6140000   2.2250000   3.9340000  -1.4610000   0.1220000
   5.3450000  -0.9750000  -1.8390000   5.7410000   1.3710000  -2.5460000
   4.7100000   3.2380000  -1.2770000   3.2950000   2.7700000   0.6910000
